#
# Energy grid scan (eV)
#
CRYSTAL
PRIMVEC
  10.0000000   0.0000000   0.0000000
  0.0000000   10.0000000   0.0000000
  0.0000000   0.0000000   10.0000000
PRIMCOORD
1 1
 Mg   0.0000000   0.0000000   0.0000000


BEGIN_BLOCK_DATAGRID_3D
energy_grid
BEGIN_DATAGRID_3D_energy
3 3 3
0.0000000 0.0000000 0.0000000
  10.0000000   0.0000000   0.0000000
  0.0000000   10.0000000   0.0000000
  0.0000000   0.0000000   10.0000000
  1
  2
  3
  4
  5
  6
  7
  8
  9
  10
  11
  12
  13
  14
  15
  16
  17
  18
  19
  20
  21
  22
  23
  24
  25
  26
  27
END_DATAGRID_3D
END_BLOCK_DATAGRID_3D
